LAMMPS (17 Nov 2016)
# 3d Lennard-Jones melt

processors  1 1 1
units		lj
atom_style	atomic

lattice		fcc 0.8442
Lattice spacing in x,y,z = 1.6796 1.6796 1.6796
region		box block 0 10 0 10 0 10
create_box	1 box
Created orthogonal box = (0 0 0) to (16.796 16.796 16.796)
  1 by 1 by 1 MPI processor grid
create_atoms	1 box
Created 4000 atoms
mass		1 1.0

velocity	all create 3.0 87287

pair_style	lj/cut 2.5
pair_coeff	1 1 1.0 1.0 2.5

neighbor	0.3 bin
neigh_modify	every 20 delay 0 check no

fix		1 all nve

#dump		id all atom 50 dump.melt
thermo		50
dump		50 all custom 50 melt.lammpstrj id type xs ys zs ix iy iz
run	10000
Neighbor list info ...
  1 neighbor list requests
  update every 20 steps, delay 0 steps, check no
  max neighbors/atom: 2000, page size: 100000
  master list distance cutoff = 2.8
  ghost atom cutoff = 2.8
  binsize = 1.4 -> bins = 12 12 12
Memory usage per processor = 3.68685 Mbytes
Step Temp E_pair E_mol TotEng Press 
       0            3   -6.7733681            0   -2.2744931   -3.7033504 
      50    1.6758903   -4.7955425            0   -2.2823355     5.670064 
     100    1.6458363   -4.7492704            0   -2.2811332    5.8691042 
     150    1.6324555   -4.7286791            0    -2.280608    5.9589514 
     200    1.6630725   -4.7750988            0   -2.2811136    5.7364886 
     250    1.6275257   -4.7224992            0    -2.281821    5.9567365 
     300    1.6454234   -4.7497837            0   -2.2822656    5.8727761 
     350    1.6512342   -4.7583046            0   -2.2820724    5.8088784 
     400    1.6536854   -4.7627528            0   -2.2828448    5.8177852 
     450    1.6258767   -4.7203075            0   -2.2821021    5.9521109 
     500    1.6381567    -4.739199            0   -2.2825782    5.9221821 
     550    1.6539395   -4.7628611            0   -2.2825721    5.7827164 
     600    1.6462766   -4.7525275            0   -2.2837299    5.8365075 
     650    1.6446223   -4.7506614            0   -2.2843448    5.8693531 
     700    1.6177062   -4.7100223            0   -2.2840696    6.0526788 
     750    1.6532371   -4.7641573            0   -2.2849217    5.8127758 
     800    1.6540561    -4.765304            0   -2.2848401    5.7860977 
     850    1.6598727   -4.7740326            0    -2.284846    5.7510176 
     900    1.6161785   -4.7087676            0    -2.285106    5.9832586 
     950    1.6440019   -4.7512942            0   -2.2859078    5.8182361 
    1000    1.6547203   -4.7681016            0   -2.2866417    5.7734588 
    1050      1.65112   -4.7627187            0   -2.2866579    5.8281273 
    1100    1.6314243   -4.7338364            0   -2.2873116    5.8952266 
    1150    1.6379002   -4.7437134            0   -2.2874773    5.8689542 
    1200    1.6527375    -4.766332            0   -2.2878454    5.7632424 
    1250    1.6490093   -4.7605593            0   -2.2876637     5.801833 
    1300    1.6546106   -4.7705306            0   -2.2892353     5.737305 
    1350    1.6516389   -4.7660845            0   -2.2892455    5.7522948 
    1400    1.6307289   -4.7341699            0    -2.288688    5.9163515 
    1450     1.641365   -4.7509494            0   -2.2895174     5.848836 
    1500    1.6366759   -4.7437052            0   -2.2893052    5.8521463 
    1550    1.6365282   -4.7448375            0   -2.2906589    5.8523005 
    1600    1.6447874   -4.7570409            0   -2.2904765    5.8032245 
    1650     1.652716    -4.768872            0   -2.2904177    5.7799593 
    1700    1.6212305   -4.7216401            0   -2.2904023    5.9157564 
    1750    1.6387996   -4.7484757            0   -2.2908909    5.8970084 
    1800    1.6322036   -4.7393989            0   -2.2917056    5.8966033 
    1850    1.6338775   -4.7421306            0    -2.291927      5.88783 
    1900    1.6358924   -4.7455259            0   -2.2923008    5.8698201 
    1950    1.6210967    -4.723176            0   -2.2921389    5.9481938 
    2000    1.6432026   -4.7566753            0   -2.2924876    5.7992673 
    2050    1.6173571   -4.7181033            0   -2.2926742    5.9624812 
    2100    1.6404458   -4.7536594            0   -2.2936059    5.8463708 
    2150    1.6482481   -4.7652648            0   -2.2935107    5.8064143 
    2200    1.6258804    -4.732316            0   -2.2941051    5.9261357 
    2250    1.6335084   -4.7441043            0   -2.2944543    5.8507542 
    2300     1.657448   -4.7807325            0    -2.295182    5.6894832 
    2350    1.6239525   -4.7306801            0   -2.2953603    5.9127926 
    2400    1.6127966   -4.7140825            0   -2.2954925    6.0076816 
    2450    1.6383313   -4.7528445            0   -2.2959619    5.8143568 
    2500     1.643757   -4.7614599            0   -2.2964407     5.774958 
    2550    1.6383323   -4.7533079            0   -2.2964239    5.8071881 
    2600    1.6338966   -4.7470876            0   -2.2968555    5.8329228 
    2650    1.6192353   -4.7243267            0   -2.2960809    5.9525811 
    2700    1.6343369   -4.7480957            0   -2.2972032    5.8434998 
    2750    1.6243522   -4.7333892            0   -2.2974699    5.8906644 
    2800    1.6388644   -4.7551605            0   -2.2974786    5.8420439 
    2850     1.645211   -4.7653574            0   -2.2981579    5.7975899 
    2900    1.6483049   -4.7701109            0   -2.2982717    5.7651163 
    2950    1.6340337     -4.74997            0   -2.2995322    5.8126757 
    3000    1.6159499    -4.723006            0   -2.2996871    5.9719886 
    3050    1.6339236   -4.7504159            0   -2.3001431    5.8573863 
    3100    1.6481328   -4.7718886            0   -2.3003075    5.7599156 
    3150    1.6448166   -4.7664175            0   -2.2998094    5.7958448 
    3200    1.6507139   -4.7757634            0   -2.3003116    5.7861408 
    3250    1.6417561   -4.7630491            0   -2.3010307    5.8037749 
    3300    1.6517048   -4.7780309            0   -2.3010932     5.730842 
    3350    1.6316774   -4.7481304            0   -2.3012261    5.8245814 
    3400    1.6406814   -4.7619643            0   -2.3015575    5.8129291 
    3450    1.6503018   -4.7769503            0   -2.3021165    5.7227287 
    3500    1.6393046   -4.7606858            0   -2.3023437    5.8195477 
    3550    1.6238636   -4.7374513            0   -2.3022648    5.8893655 
    3600    1.6274462   -4.7432511            0    -2.302692    5.8960471 
    3650    1.6363596   -4.7573754            0   -2.3034497    5.7703085 
    3700    1.6418186   -4.7664723            0   -2.3043601    5.7596971 
    3750    1.6211175   -4.7346715            0   -2.3036032     5.919262 
    3800    1.6396966   -4.7634412            0   -2.3045113    5.7536724 
    3850    1.6436589   -4.7696465            0   -2.3047745    5.7531649 
    3900    1.6113502   -4.7214575            0   -2.3050364    5.9738649 
    3950    1.6323633   -4.7530279            0    -2.305095    5.8767286 
    4000    1.6557303   -4.7889647            0   -2.3059901    5.7356072 
    4050    1.6295491   -4.7495953            0   -2.3058827     5.847033 
    4100    1.6303241   -4.7515041            0   -2.3066293    5.8416732 
    4150     1.630679   -4.7518348            0   -2.3064278    5.8268457 
    4200    1.6538863   -4.7880525            0   -2.3078434    5.6499598 
    4250    1.6236321   -4.7415165            0   -2.3066771    5.8713622 
    4300    1.6308004    -4.752599            0     -2.30701    5.8589674 
    4350     1.628037   -4.7493982            0   -2.3079532    5.8444579 
    4400    1.6429096   -4.7717589            0   -2.3080106    5.7676369 
    4450    1.6313571   -4.7554302            0   -2.3090063    5.8061646 
    4500    1.6392291   -4.7667509            0    -2.308522    5.7710883 
    4550    1.6588815   -4.7963554            0   -2.3086553    5.6671745 
    4600     1.634993   -4.7607071            0   -2.3088308    5.8067704 
    4650     1.631052   -4.7563329            0   -2.3103666    5.8193987 
    4700    1.6232108   -4.7442535            0   -2.3100459    5.8508384 
    4750    1.6191071   -4.7379344            0    -2.309881    5.8501015 
    4800    1.6292731   -4.7536043            0   -2.3103057    5.8169976 
    4850    1.6145175   -4.7317833            0   -2.3106126    5.9254688 
    4900    1.6207314   -4.7416348            0   -2.3111454    5.8692313 
    4950    1.6293112    -4.754916            0   -2.3115602     5.824005 
    5000     1.634158   -4.7624851            0    -2.311861    5.7913176 
    5050    1.6352453   -4.7647167            0    -2.312462    5.7653778 
    5100    1.6240826   -4.7480028            0   -2.3124879       5.8324 
    5150    1.6130459    -4.731357            0   -2.3123931    5.8744863 
    5200    1.6210155   -4.7442077            0   -2.3132922    5.8351664 
    5250    1.6281686    -4.754721            0   -2.3130787    5.8180508 
    5300    1.6377944   -4.7702977            0   -2.3142203    5.7470128 
    5350    1.6300552   -4.7592068            0   -2.3147352    5.7914106 
    5400    1.6289314   -4.7566997            0   -2.3139134    5.7973024 
    5450     1.618479   -4.7411636            0   -2.3140521    5.8929498 
    5500    1.6373257   -4.7708102            0   -2.3154356    5.7588366 
    5550    1.6216613   -4.7475771            0   -2.3156933    5.8613533 
    5600    1.6195093   -4.7447758            0   -2.3161191    5.7958315 
    5650    1.6392161    -4.774285            0   -2.3160756    5.7147579 
    5700     1.628364   -4.7587639            0   -2.3168286    5.7767173 
    5750    1.6390271   -4.7740557            0   -2.3161297    5.7329118 
    5800    1.6303906   -4.7620557            0   -2.3170811    5.7809606 
    5850    1.6415083   -4.7795793            0   -2.3179324     5.705586 
    5900    1.6338252    -4.767804            0   -2.3176788    5.7795088 
    5950    1.6422164   -4.7809207            0   -2.3182119    5.7019169 
    6000    1.6320264   -4.7652392            0   -2.3178116    5.7636592 
    6050    1.6382774   -4.7756418            0     -2.31884    5.7500905 
    6100    1.6430022   -4.7825234            0   -2.3186362    5.7159279 
    6150    1.6258173   -4.7569972            0   -2.3188809    5.8161267 
    6200    1.6260222   -4.7586594            0   -2.3202358    5.7973497 
    6250    1.6499446   -4.7935262            0    -2.319228    5.6628577 
    6300    1.6230284   -4.7547691            0   -2.3208352    5.8156138 
    6350    1.6192148    -4.748683            0    -2.320468    5.8288456 
    6400    1.6224586   -4.7527812            0   -2.3197018    5.8182154 
    6450    1.6190777   -4.7483991            0   -2.3203898    5.8740875 
    6500    1.6100065   -4.7353542            0   -2.3209482    5.9008598 
    6550    1.6284849   -4.7639408            0   -2.3218242    5.8079194 
    6600     1.630254    -4.767013            0   -2.3222434    5.7871203 
    6650     1.614538   -4.7436321            0   -2.3224306    5.8511405 
    6700    1.6261937   -4.7616291            0   -2.3229484     5.782141 
    6750    1.6298557   -4.7663648            0   -2.3221926    5.7852317 
    6800    1.6321409   -4.7709571            0   -2.3233579    5.7405744 
    6850    1.6243158   -4.7582979            0   -2.3224334    5.7963334 
    6900    1.6307267   -4.7694474            0   -2.3239689    5.7486627 
    6950    1.6245779   -4.7600348            0   -2.3237772    5.8204378 
    7000    1.6321516   -4.7724669            0   -2.3248516    5.7299657 
    7050    1.6229364   -4.7586116            0   -2.3248156    5.8065075 
    7100    1.6077964    -4.735942            0   -2.3248503    5.9076973 
    7150    1.6243483     -4.76182            0   -2.3259067    5.8087818 
    7200     1.620163   -4.7560841            0   -2.3264472    5.7466493 
    7250    1.6447487   -4.7922841            0   -2.3257779    5.6751366 
    7300    1.6233194   -4.7598957            0   -2.3255254    5.8101186 
    7350    1.6194239   -4.7547036            0   -2.3261751    5.8054671 
    7400    1.6176648   -4.7528272            0   -2.3269367    5.8316371 
    7450    1.5966428   -4.7212605            0   -2.3268951    5.9503763 
    7500    1.6152445   -4.7492534            0   -2.3269923    5.8667204 
    7550    1.6201048   -4.7580254            0   -2.3284758    5.7922796 
    7600    1.6071235   -4.7379432            0   -2.3278606    5.8912001 
    7650    1.6219224   -4.7599414            0   -2.3276661     5.820297 
    7700    1.6223092   -4.7611256            0   -2.3282701    5.7627038 
    7750    1.6098456   -4.7428276            0   -2.3286629    5.8731066 
    7800    1.6250553   -4.7667966            0   -2.3298231    5.7503918 
    7850    1.6043308   -4.7357058            0   -2.3298111    5.8789103 
    7900     1.628183   -4.7714995            0   -2.3298356    5.7180869 
    7950    1.6283406   -4.7725827            0   -2.3306824    5.6918431 
    8000    1.6107852   -4.7465916            0   -2.3310177    5.8467646 
    8050    1.6208502   -4.7613929            0   -2.3307255    5.7496649 
    8100    1.6103887   -4.7460962            0    -2.331117    5.8512453 
    8150    1.6043843   -4.7369031            0   -2.3309283     5.868784 
    8200    1.6270736   -4.7716978            0   -2.3316975    5.7273726 
    8250    1.6251839   -4.7702336            0   -2.3330673    5.7240094 
    8300    1.6132329   -4.7513367            0   -2.3320923    5.8697987 
    8350    1.6117898    -4.749439            0   -2.3323588    5.8208341 
    8400    1.6202125   -4.7633835            0   -2.3336723    5.7693441 
    8450    1.6180943   -4.7598069            0   -2.3332723    5.8253289 
    8500    1.6101253    -4.747462            0   -2.3328778    5.8490906 
    8550    1.6430699   -4.7984045            0   -2.3344159    5.6441321 
    8600    1.6187291   -4.7615422            0   -2.3340556    5.8130464 
    8650    1.6144907   -4.7558168            0   -2.3346862    5.7763446 
    8700    1.6322549   -4.7831454            0   -2.3353751    5.7148896 
    8750    1.6244775   -4.7704911            0   -2.3343841    5.7524694 
    8800    1.6204021   -4.7656962            0   -2.3357007    5.7464842 
    8850    1.6171537   -4.7614572            0    -2.336333    5.7570682 
    8900    1.6177076   -4.7625195            0   -2.3365648    5.7491396 
    8950    1.6234392   -4.7716433            0   -2.3370932    5.7189146 
    9000    1.6260145    -4.775575            0    -2.337163    5.7035481 
    9050    1.6196217   -4.7654524            0   -2.3366272    5.7950327 
    9100    1.6068831   -4.7467244            0   -2.3370023    5.8347396 
    9150    1.6386057   -4.7960487            0   -2.3387547    5.6556056 
    9200    1.6272984    -4.778969            0   -2.3386316    5.7286147 
    9250    1.6053019   -4.7457939            0    -2.338443     5.853519 
    9300    1.6067701   -4.7480299            0   -2.3384772    5.8619451 
    9350    1.6099931   -4.7527271            0   -2.3383412    5.8037124 
    9400    1.6151232   -4.7616748            0   -2.3395956    5.7545751 
    9450    1.6065056   -4.7489011            0   -2.3397451     5.853332 
    9500     1.632366   -4.7878365            0   -2.3398997    5.6948833 
    9550    1.6210407   -4.7716026            0   -2.3406494    5.7327954 
    9600    1.6402623   -4.8003372            0   -2.3405588    5.6145566 
    9650    1.6220281   -4.7738077            0   -2.3413738    5.7296627 
    9700    1.6076197   -4.7522622            0   -2.3414355    5.8242517 
    9750    1.6202509   -4.7717235            0   -2.3419547    5.7586302 
    9800     1.605788   -4.7499609            0    -2.341881    5.8131953 
    9850    1.6188439   -4.7695476            0   -2.3418887    5.7027721 
    9900    1.6074375   -4.7533529            0   -2.3427994    5.7686861 
    9950    1.5947448   -4.7342543            0   -2.3427351    5.9160141 
   10000    1.6128565   -4.7615638            0   -2.3428838    5.7675962 
Loop time of 40.3186 on 1 procs for 10000 steps with 4000 atoms

Performance: 107146.642 tau/day, 248.025 timesteps/s
99.8% CPU use with 1 MPI tasks x no OpenMP threads

MPI task timing breakdown:
Section |  min time  |  avg time  |  max time  |%varavg| %total
---------------------------------------------------------------
Pair    | 32.77      | 32.77      | 32.77      |   0.0 | 81.28
Neigh   | 4.8084     | 4.8084     | 4.8084     |   0.0 | 11.93
Comm    | 0.63548    | 0.63548    | 0.63548    |   0.0 |  1.58
Output  | 1.3755     | 1.3755     | 1.3755     |   0.0 |  3.41
Modify  | 0.58873    | 0.58873    | 0.58873    |   0.0 |  1.46
Other   |            | 0.1403     |            |       |  0.35

Nlocal:    4000 ave 4000 max 4000 min
Histogram: 1 0 0 0 0 0 0 0 0 0
Nghost:    5474 ave 5474 max 5474 min
Histogram: 1 0 0 0 0 0 0 0 0 0
Neighs:    151677 ave 151677 max 151677 min
Histogram: 1 0 0 0 0 0 0 0 0 0

Total # of neighbors = 151677
Ave neighs/atom = 37.9192
Neighbor list builds = 500
Dangerous builds not checked

#dump		2 all image 25 image.*.jpg type type #		axes yes 0.8 0.02 view 60 -30
#dump_modify	2 pad 3

#dump		3 all movie 25 movie.mpg type type #		axes yes 0.8 0.02 view 60 -30
#dump_modify	3 pad 3
Total wall time: 0:00:40
